VARIABLES = "x", "y", "rho", "u", "v", "p"
ZONE T="Step 2800.0", I=161, J=113, F=POINT
1.0 0.0 0.8931340594867521 0.12217626901397133 0.0021694178907995573 0.8955689027931898
0.998465001583099 -0.001475000055507 0.958211336000083 0.2659367953914909 0.11212538596976414 0.9673695650762603
0.996433973312378 -0.001759000006132 1.0205500559609493 0.3890731199626832 0.052845858857981286 1.0333582611724508
0.993889987468719 -0.002114000031725 1.0163211446154028 0.38942805477179265 0.054801366630235875 1.0274645723886124
0.990813970565796 -0.002542000031099 1.014387025120975 0.3921274468698696 0.05555141544458104 1.024692837873696
0.987185001373291 -0.003043999895453 1.0129691225462953 0.3958703787530932 0.0559701769597313 1.0226857222772257
0.982980012893677 -0.003623000113294 1.0116744935594784 0.3999883424372738 0.05632031161276592 1.0208313326896252
0.97817200422287 -0.00428200000897 1.0104143548578857 0.4042132610832116 0.05653386396166146 1.0190518183685795
0.972733020782471 -0.00502200005576 1.0092091282759483 0.40839097945527175 0.05666901391237999 1.0173322960499291
0.966633021831512 -0.00584700005129 1.0079882807372476 0.41249616088460045 0.05678527532224824 1.0155954065638224
0.959843993186951 -0.006757999770343 1.006855418869976 0.4164707518560614 0.05677866323216245 1.0139860887697483
0.952332019805908 -0.007757000159472 1.0057820682543106 0.4202916974345348 0.05672106650792329 1.0124565244177222
0.944064021110535 -0.008847000077367 1.0047470673305576 0.42398552351259405 0.05658227244724594 1.0109822535935642
0.935012996196747 -0.010026999749243 1.0037411707221162 0.42755701282201947 0.05638099824751816 1.009554638872144
0.925153017044067 -0.011299000121653 1.0027266513226116 0.4310835057905306 0.056144819454009114 1.0081160581523723
0.914457023143768 -0.012662000022829 1.0017418617053653 0.4345611637951907 0.05582308531785164 1.00672166417304
0.902894973754883 -0.014116000384092 1.0007700584012091 0.43798812781842816 0.05545956157931535 1.0053430459640682
0.890447974205017 -0.015659999102354 0.9997991472684613 0.4413948180259665 0.05503816745756156 1.0039638666021038
0.87710702419281 -0.017289999872446 0.9988366762357661 0.4447452459276759 0.054549024274801496 1.002598764177399
0.862851977348328 -0.019004000350833 0.9978686166167208 0.44799634557991586 0.05401429006940674 1.0012300466843127
0.847672998905182 -0.020797999575734 0.9968896467774586 0.45117277083602114 0.0534537563479169 0.9998470079689047
0.831580996513367 -0.022667000070214 0.995938139724787 0.4543004168044719 0.05280009120228501 0.9985038427267244
0.814565002918243 -0.024602999910712 0.9949973062058128 0.4573806405364937 0.052093998308922064 0.9971769290401736
0.796647012233734 -0.026601999998093 0.994019988755169 0.4604313591110722 0.051348363281906444 0.9957991657437796
0.777839004993439 -0.028652999550104 0.9930267353210944 0.46345109488960484 0.05050631232652157 0.9944000054005163
0.75816798210144 -0.030748000368476 0.9920240023474374 0.4664441904440459 0.04961598730626336 0.992983431856953
0.737666010856628 -0.032876998186111 0.9910473397809978 0.4694168522020042 0.04863058704956512 0.9916009871772462
0.71637099981308 -0.035027001053095 0.9901160353018286 0.4723778412489576 0.04756515513745424 0.9902843912478487
0.694330990314484 -0.037188000977039 0.989198256940288 0.4753438247847049 0.04642123683852562 0.988990465577608
0.671599984169006 -0.039344999939203 0.9882720551996593 0.47830274209511175 0.045145076187020565 0.987690970828257
0.648235023021698 -0.041482999920845 0.9873041666707161 0.4812431745970549 0.04376230144180707 0.9863390931593798
0.62431001663208 -0.043588001281023 0.986300107939992 0.4841922787059373 0.042248863233674584 0.9849380274025984
0.599892020225525 -0.045641999691725 0.9853111313318563 0.4871772907985777 0.04057546804089907 0.9835582671013126
0.57506400346756 -0.047628998756409 0.9843471655593471 0.4901999477557062 0.03874473794210697 0.9822119964083815
0.549907982349396 -0.049531001597643 0.983399205224077 0.49322780819361717 0.03669923083923376 0.9808859876818903
0.524513006210327 -0.051327999681234 0.9824376496370852 0.49622026092656624 0.03445160691013678 0.9795390239312045
0.498968988656998 -0.053004998713732 0.9814517204121337 0.4991823800688078 0.03196602042487164 0.9781573799718228
0.473370999097824 -0.054540000855923 0.9804805294358898 0.5021240398385884 0.029210177687488112 0.9767977810474322
0.447813004255295 -0.055918000638485 0.9795099161098441 0.5050613463504914 0.026201707855095676 0.9754466048790134
0.422389000654221 -0.057121999561787 0.9785500439263881 0.5079588203065991 0.022843443986946058 0.9741208003315043
0.397199988365173 -0.058132000267506 0.9775966469909834 0.5107242177529782 0.019158489742532835 0.9728137303227505
0.372332006692886 -0.058938998728991 0.9766131016143691 0.5133127671026787 0.015146704846936882 0.9714769114262635
0.347880005836487 -0.05952800065279 0.9756662040168036 0.5156985507953994 0.010718407416692938 0.9702061682746526
0.323933988809586 -0.059888001531363 0.9747922125220341 0.5178882804784188 0.005944640753233429 0.9690497539055007
0.300568014383316 -0.060017000883818 0.9740278105307223 0.5198947843982723 0.0007158944019119765 0.9680568084734463
0.277873992919922 -0.059902999550104 0.9733912805229563 0.521610870516681 -0.004961956400687535 0.9672537356593259
0.255910009145737 -0.059551000595093 0.9728234275546908 0.5229543708238042 -0.011040845284088347 0.9665520429963941
0.234749004244804 -0.058958999812603 0.9723569016037528 0.5238702422803949 -0.01762350597873133 0.9659937641857383
0.214451000094414 -0.058132000267506 0.9720231418681219 0.5242777899413497 -0.02460566734509092 0.9656236942587441
0.195054993033409 -0.057080000638962 0.971905565111506 0.5242086621883021 -0.032107288785286486 0.9655708555939414
0.176621004939079 -0.055810000747442 0.9720438188342104 0.5236266625304404 -0.04006414095943664 0.9659084611776665
0.159161999821663 -0.054340999573469 0.9723106406806876 0.5223408204469455 -0.048506425415601614 0.9664360134332441
0.142725005745888 -0.052680000662804 0.972589293576704 0.5201513164303541 -0.05741462617744451 0.9669900232847022
0.127308994531631 -0.050852000713348 0.9731080230285815 0.5171194281446359 -0.06679336880836373 0.9678862459026328
0.112931996583939 -0.048870999366045 0.9742564329431507 0.5133843462984019 -0.07690155686552455 0.9697141956128863
0.099598996341228 -0.046757001429796 0.975603907552514 0.5086241739523443 -0.08736811683091349 0.9718412475484444
0.087283998727798 -0.044532999396324 0.9768848024277558 0.502528451446687 -0.09831730750575501 0.9738477278756406
0.075993999838829 -0.042215999215841 0.9786682052047971 0.4950290864432881 -0.1100548330098472 0.9766258181082449
0.065700002014637 -0.03982700034976 0.981222210711841 0.4861244346564932 -0.12230579199931173 0.9805412994269629
0.056363001465797 -0.037388000637293 0.9841170520865008 0.47557741768043926 -0.13495814753287483 0.9849680527231438
0.047956001013517 -0.034917999058962 0.9873092209541111 0.4628508650469206 -0.14820520900194895 0.9898362592991198
0.040447000414133 -0.03243400156498 0.9914550737060235 0.4476246378855756 -0.16205960789006904 0.9960714939041064
0.033789001405239 -0.029953999444842 0.9965357972522442 0.4296180045437639 -0.17608491633147633 1.0037070889535367
0.027930999174714 -0.027495000511408 1.0021681065435804 0.4084527887152263 -0.18981367809623517 1.0122110422775419
0.022820999845862 -0.025072999298573 1.0089556508854587 0.38376827663628027 -0.20312893036830687 1.0223856708722698
0.018407000228763 -0.022701000794768 1.016898671585331 0.3549896196417438 -0.2152350116634556 1.034253714480561
0.014634000137448 -0.020393999293447 1.0258708268639452 0.32181573680203535 -0.2251670855645616 1.0476329436952974
0.01144600007683 -0.018162000924349 1.036023104925107 0.28478977199245603 -0.23203937310412648 1.0627298647347125
0.008786999620497 -0.016017999500036 1.046738191698147 0.2444713921528519 -0.23492661660661227 1.0785929701307253
0.006610999815166 -0.013970999978483 1.0585001508729721 0.20101028206417973 -0.23237968074987309 1.0960450698054076
0.004856999963522 -0.012029999867082 1.0707416485144292 0.15651074504556706 -0.22218338961257325 1.1142289977632889
0.003460000036284 -0.010204999707639 1.0821669902744122 0.11342724090489639 -0.20434363178957057 1.1310425643278115
0.002377999946475 -0.008503000251949 1.0935227572524062 0.07221148141235764 -0.17924447427847995 1.1477583185385432
0.001576000009663 -0.006930000148714 1.1023190141440429 0.03738464781916804 -0.1473139015239199 1.1604855228412319
0.000976999988779 -0.005493999924511 1.1085500002545787 0.0096045648230724 -0.11058767636029157 1.1694827278731466
0.000577000027988 -0.004197999835014 1.1127921484439534 -0.010755792676262236 -0.0720006260623226 1.1754585357057996
0.000299000006635 -0.003050999948755 1.1146385236489613 -0.023171823995880657 -0.033030678680375944 1.1777159893914728
0.000140000003739 -0.002052000025287 1.115864924455481 -0.03035480401476532 0.0044424685467757945 1.1789463207435988
5.6000000768e-05 -0.001206999993883 1.1175407332477705 -0.03395085373072492 0.03868544917153265 1.1807773678696478
1.2999999853e-05 -0.000523000024259 1.1219568082666909 -0.03655056348190843 0.07061460435349742 1.1867595720906425
0.0 0.0 1.1257554171865276 -0.0360349740493558 0.1020497263063743 1.1918356366057437
1.2999999853e-05 0.000523000024259 1.1244093502680825 -0.030800169020559074 0.1338369171289117 1.1897176660240176
5.6000000768e-05 0.001206999993883 1.1195557060521955 -0.02268756969488808 0.16748331367140942 1.182847242812024
0.000140000003739 0.002052000025287 1.1122695925940222 -0.009002896612889642 0.20365292768438234 1.1726330971035266
0.000299000006635 0.003050999948755 1.1008757542469931 0.014589567944687442 0.23997183796766272 1.1563649619525123
0.000577000027988 0.004197999835014 1.0906077022061802 0.0427900977602223 0.2755270967142053 1.1417500252650115
0.000976999988779 0.005493999924511 1.076830167008766 0.07981374920364828 0.3076533449772243 1.1223428502197237
0.001576000009663 0.006930000148714 1.0609075564116388 0.12480697266237314 0.33478371357270686 1.099564219883297
0.002377999946475 0.008503000251949 1.044593776250605 0.17429002447728958 0.3542486855698246 1.0763363696248855
0.003460000036284 0.010204999707639 1.0265701560187355 0.2284849867556892 0.3637364503395024 1.0506484806051581
0.004856999963522 0.012029999867082 1.0119966085880923 0.279631124197275 0.36540042491270464 1.030011360634352
0.006610999815166 0.013970999978483 0.9968982678979391 0.3302884508071529 0.35946303868068796 1.0086108606834658
0.008786999620497 0.016017999500036 0.9830014414212361 0.3783978081009472 0.34593721401030864 0.9887431885417584
0.01144600007683 0.018162000924349 0.9721277154040628 0.41986678879663714 0.32760598286165654 0.9729910089102889
0.014634000137448 0.020393999293447 0.9629671827010118 0.4542094882841282 0.30617186638001403 0.9596336502765164
0.018407000228763 0.022701000794768 0.9557325991467747 0.4829957668956743 0.28327217198158394 0.9490226751001813
0.022820999845862 0.025072999298573 0.950873407395894 0.5065983923168432 0.26031804363436706 0.9418434733100903
0.027930999174714 0.027495000511408 0.9471284490927783 0.5250019424192399 0.23757230745101188 0.9362481627588398
0.033789001405239 0.029953999444842 0.9440874284236436 0.5392589105542517 0.2155895670921267 0.9315866693816017
0.040447000414133 0.03243400156498 0.9422617266835742 0.5507683140876424 0.19485340408394236 0.9286621830916635
0.047956001013517 0.034917999058962 0.9415997215617355 0.5597863972618377 0.17556401826785376 0.9274062644835875
0.056363001465797 0.037388000637293 0.9411657260730606 0.5664093858575133 0.1576399088081632 0.9264797243987066
0.065700002014637 0.03982700034976 0.9408159727483589 0.5712172148202554 0.14105013496734548 0.9256698838271885
0.075993999838829 0.042215999215841 0.9409535451041231 0.5748938049440584 0.12555991145738618 0.9255464045130433
0.087283998727798 0.044532999396324 0.9415608365155521 0.5774108036204346 0.11105762930516276 0.9260936641693208
0.099598996341228 0.046757001429796 0.9422494962500617 0.5786540361189433 0.09769772754828056 0.9267928799588752
0.112931996583939 0.048870999366045 0.9429036540328672 0.5789875448500698 0.08519607690733323 0.9274452191143926
0.127308994531631 0.050852000713348 0.9437763756425226 0.5786261129386961 0.07343896026835788 0.9284374318293448
0.142725005745888 0.052680000662804 0.9449168003436942 0.5776670269456559 0.06265317908998844 0.9298362507253992
0.159161999821663 0.054340999573469 0.94615443342931 0.5761418324415967 0.052489873220774586 0.9313631207707168
0.176621004939079 0.055810000747442 0.9475021751389097 0.5740851945345312 0.04303018532592364 0.9330466405014975
0.195054993033409 0.057080000638962 0.948918433620726 0.5716298473637198 0.03429991056150136 0.9348379376977279
0.214451000094414 0.058132000267506 0.9504072466553577 0.5687843600436149 0.02611317694901307 0.9367446102394622
0.234749004244804 0.058958999812603 0.9520255643678583 0.5655511800287981 0.01852231449913304 0.9388483249595824
0.255910009145737 0.059551000595093 0.9537776565145318 0.5619166108949821 0.011448602540130364 0.9411621561816961
0.277873992919922 0.059902999550104 0.9556118048092503 0.5579258979908124 0.004969369587274441 0.9436053759046604
0.300568014383316 0.060017000883818 0.9574337955714913 0.5536825807370948 -0.0010291705718819815 0.9460441601450241
0.323933988809586 0.059888001531363 0.9592766643891547 0.5492649906852176 -0.006524932545678073 0.9485256678155037
0.347880005836487 0.05952800065279 0.9611363758662534 0.5447651829955007 -0.01152495243885149 0.9510450501534453
0.372332006692886 0.058938998728991 0.9629959856852073 0.5401819527680127 -0.016133087407263023 0.9535740193528347
0.397199988365173 0.058132000267506 0.9648209576132774 0.5355095305870218 -0.020277041378560998 0.9560720047806975
0.422389000654221 0.057121999561787 0.966556318744565 0.5307750914641481 -0.024054809037140152 0.9584681263096451
0.447813004255295 0.055918000638485 0.9682604832571113 0.5260408445740694 -0.027472883594952126 0.9608287018278634
0.473370999097824 0.054540000855923 0.9699649346001826 0.5214051034788827 -0.030507718135951836 0.9631957907685278
0.498968988656998 0.053004998713732 0.9716403221586225 0.5168579101676244 -0.03325940631311305 0.9655266176961005
0.524513006210327 0.051327999681234 0.9732481359680406 0.5123409422589112 -0.0357159154151243 0.9677624865503963
0.549907982349396 0.049531001597643 0.9747585455848148 0.5078806340904056 -0.03792648421180364 0.9698653335714957
0.57506400346756 0.047628998756409 0.9762453495804919 0.5035255426975284 -0.03993410603204557 0.9719399085301402
0.599892020225525 0.045641999691725 0.9777392798143597 0.4992987498659501 -0.04171805083508602 0.9740322013021024
0.62431001663208 0.043588001281023 0.9791826280778639 0.4951543667589421 -0.04333181154736063 0.9760580465694653
0.648235023021698 0.041482999920845 0.98054383042666 0.4910561607118898 -0.04478084111593686 0.9779657709512459
0.671599984169006 0.039344999939203 0.9818464203214048 0.4870311374670868 -0.046099668889219396 0.9797933584347515
0.694330990314484 0.037188000977039 0.9831592293565203 0.4830942117168308 -0.047309269861739535 0.9816421721606134
0.71637099981308 0.035027001053095 0.984471225252754 0.4792297633612662 -0.048384776084303624 0.9834903120926638
0.737666010856628 0.032876998186111 0.9857349438888715 0.4753940141323924 -0.04937663369239129 0.9852642751426012
0.75816798210144 0.030748000368476 0.9869673226350189 0.4715634823820248 -0.0502861344794521 0.9869907986032481
0.777839004993439 0.028652999550104 0.9881864552537241 0.4677593033358487 -0.05110353418155006 0.9887000680283771
0.796647012233734 0.026601999998093 0.9894175397648336 0.4639839765144182 -0.051870133096066764 0.9904301614343871
0.814565002918243 0.024602999910712 0.9906656707564395 0.4602244220480201 -0.05253785740068874 0.9921865959694139
0.831580996513367 0.022667000070214 0.9918841625754045 0.456450602607884 -0.05316193845887425 0.9939001754301854
0.847672998905182 0.020797999575734 0.9930829661262122 0.45262464807929303 -0.05373117602484679 0.9955857235188407
0.862851977348328 0.019004000350833 0.9942638958183847 0.4487659515109364 -0.054210401910752555 0.9972483457753769
0.87710702419281 0.017289999872446 0.9954331395160794 0.4448792004386158 -0.054656127940216945 0.9988943748835417
0.890447974205017 0.015659999102354 0.996607545956601 0.4409451578637918 -0.055060973125161616 1.0005502845905305
0.902894973754883 0.014116000384092 0.9977737185535672 0.43700406250042717 -0.055415813768655266 1.0022016253596289
0.914457023143768 0.012662000022829 0.9989259053039099 0.43307320818805284 -0.05571272307515079 1.0038396157475158
0.925153017044067 0.011299000121653 1.0000584981793323 0.429115924896464 -0.055965028704328755 1.0054541254455296
0.935012996196747 0.010026999749243 1.0011864205031253 0.4251264656973612 -0.05613735778732263 1.0070653831054444
0.944064021110535 0.008847000077367 1.002298220661373 0.4210912070586731 -0.056285199103739275 1.0086554281325342
0.952332019805908 0.007757000159472 1.0034561872514098 0.4169696312948944 -0.05637320416494818 1.0103123757358918
0.959843993186951 0.006757999770343 1.0046632627304637 0.4127592942321453 -0.056384330837654976 1.0120371004342765
0.966633021831512 0.00584700005129 1.0059064014751298 0.40841840763980464 -0.056349360737386466 1.0138088145544928
0.972733020782471 0.00502200005576 1.0072284500347748 0.40393577514192974 -0.056182164091681405 1.0156919763517012
0.97817200422287 0.00428200000897 1.0085351950086094 0.3993428273107808 -0.05599010681161328 1.017553009107978
0.982980012893677 0.003623000113294 1.0098894556412747 0.3946834886980543 -0.055729520540559484 1.0194650399075096
0.987185001373291 0.003043999895453 1.0112942194238865 0.3901009565260287 -0.055325175495374405 1.0214845400053132
0.990813970565796 0.002542000031099 1.0128873965953766 0.3859432870942536 -0.05485988986219669 1.0237244857995311
0.993889987468719 0.002114000031725 1.01493653987183 0.38279899884540414 -0.05405054719902448 1.0266688830184012
0.996433973312378 0.001759000006132 1.0188736765694926 0.381776781300687 -0.052241568638482117 1.032200480551707
0.998465001583099 0.001475000055507 0.9575806287823287 0.25990134706960727 -0.10990371313195918 0.9674396520019064
1.0 0.0 0.8931340594867521 0.12217626901397133 0.0021694178907995573 0.8955689027931898
1.000852108001709 0.0 0.970145215887805 0.20337276120119444 0.0017918071135402214 0.9974729556168686
0.999838173389435 -0.002099733799696 0.994848066358959 0.29602288159598983 0.06879970900615986 1.0154781157837132
0.997887372970581 -0.003533447626978 1.0187768220825526 0.38363619773266494 0.05142715435225313 1.0310131240203668
0.995311141014099 -0.00475245853886 1.0175898141963486 0.38756719660390293 0.05103672789827011 1.0291258326299773
0.992160499095917 -0.00592716736719 1.0162743895994946 0.39223116737069375 0.05091965183872283 1.0271853593911808
0.988434493541718 -0.007120247930288 1.014998496740242 0.39694592057568284 0.05110229028612058 1.025335394058235
0.984116971492767 -0.008359928615391 1.013751293533541 0.40156150271676894 0.05146857832259677 1.0235109291416198
0.979185223579407 -0.009660868905485 1.0124903546845376 0.40610021748423986 0.051850168974758075 1.021672673605173
0.973613917827606 -0.011031579226255 1.0112503794770824 0.41054097317537513 0.0522135589053427 1.0198486331185
0.967375516891479 -0.012478025630116 1.0100168660719275 0.4149168694535729 0.05253916947143935 1.0180311158373068
0.960442841053009 -0.014003781601787 1.0088321548921313 0.41919608870973313 0.052790162490298734 1.016278639512625
0.952786207199097 -0.0156114930287 1.0076955284094693 0.42337120892958646 0.05299479834811349 1.01458548719265
0.944376528263092 -0.017303019762039 1.0065927934215568 0.4274627140547823 0.05313147777856106 1.0129356463575745
0.935187697410583 -0.019078381359577 1.0055337031957163 0.4314517912538695 0.053209367907198574 1.0113473224542375
0.925194323062897 -0.020937446504831 1.004494872143983 0.43535686087662745 0.05324548929875433 1.009788469655982
0.914372086524963 -0.022878810763359 1.0034827895733884 0.43917213823528 0.053198846027664996 1.0082708681239176
0.902697801589966 -0.024900548160076 1.002504541561411 0.4428807993617386 0.05307548492183276 1.006801700815615
0.890154600143433 -0.026999548077583 1.0015444604055113 0.4464950799248753 0.0528450976542983 1.0053573277460588
0.876729249954224 -0.029171157628298 1.0005980540287773 0.4500147698301179 0.05251669076639123 1.0039326383325695
0.862409234046936 -0.031410589814186 0.9996747857622352 0.4534256786289265 0.05210871459655137 1.0025443368989768
0.84718918800354 -0.03371174633503 0.9987662402810951 0.4567557625007417 0.05162894584223195 1.001180850407205
0.831071972846985 -0.03606715798378 0.9978749607592687 0.46002512300836534 0.05105581149412391 0.999847784704067
0.814060091972351 -0.038468215614557 0.9969918220392947 0.4632374148848948 0.050415431178343004 0.9985308357118213
0.796167612075806 -0.040906261652708 0.9960842533957189 0.4664088614024419 0.049699358787156485 0.9971861650951505
0.777411460876465 -0.04337015375495 0.9951534155435694 0.46953706660237876 0.0488847838104698 0.9958157405722499
0.757817983627319 -0.045848727226257 0.994215814236832 0.472628776432298 0.048008928317506756 0.9944362440496217
0.7374187707901 -0.048329643905163 0.9933043192287682 0.4756867108332271 0.047036942089398126 0.9930962888067119
0.716252446174622 -0.050799138844013 0.9924286500469809 0.47871772115001 0.045982573903475765 0.991812899659783
0.694364666938782 -0.05324362963438 0.9915645207569805 0.4817372155417228 0.04482911386211984 0.9905529822279449
0.671808362007141 -0.055647443979979 0.990687602714242 0.48472708407526965 0.043539852622579846 0.9892836145704136
0.648640930652618 -0.057994514703751 0.9897716116397555 0.48767937939104233 0.042133748072667364 0.9879700489378969
0.624930262565613 -0.060268573462963 0.988831129534786 0.4906244802680529 0.04059525208994727 0.9866292067796703
0.600744545459747 -0.062451880425215 0.9879025019121368 0.4935826239498428 0.03891442959875007 0.9853084731918805
0.576161742210388 -0.06452713906765 0.986991931724137 0.49655180218527656 0.03707235544642401 0.984016523161519
0.551261246204376 -0.066476166248322 0.9860856971621105 0.49950438114734846 0.03501611333536608 0.9827344548009632
0.526128172874451 -0.068280473351479 0.9851591787048422 0.5024042581043805 0.03275523945660798 0.9814293605883635
0.500849604606628 -0.069923214614391 0.9842138325860811 0.5052527484922315 0.030258672815201063 0.9801036815676918
0.475515872240067 -0.071385949850082 0.9832846470313542 0.508057352035847 0.02750867459147767 0.9788046133236891
0.450217723846436 -0.072652943432331 0.9823710071438212 0.5108368780591903 0.02450628158990771 0.9775320424721705
0.425046384334564 -0.073708653450012 0.9814754617872022 0.5135606990362904 0.021183779170626377 0.9762907000035127
0.400094926357269 -0.074537664651871 0.9805862686458919 0.5161539435568641 0.017555917544685936 0.9750644961955659
0.37545108795166 -0.075129464268684 0.9796817350583471 0.5185804012711243 0.013608494434417697 0.973825791804159
0.351203233003616 -0.075473107397556 0.9788116953801651 0.5208046139548642 0.009291474179159598 0.9726456144834322
0.327436745166779 -0.075560569763184 0.9780103648403411 0.5228345714940502 0.004646308831505182 0.9715665833411314
0.304228901863098 -0.075388468801975 0.9772819778595415 0.5246769917769173 -0.00039413864153864956 0.9705940964452173
0.281659364700317 -0.074952363967896 0.976652956916102 0.526226284801795 -0.005825290578711405 0.9697666766130393
0.259793907403946 -0.074254766106606 0.9761057091475602 0.5274078976453409 -0.011627295802494922 0.9690544803693182
0.238698109984398 -0.073298551142216 0.9756396352680948 0.5281794665807973 -0.01784671983140056 0.9684546120793667
0.218429505825043 -0.072090394794941 0.9753165469901983 0.5284706825294706 -0.02447429077147754 0.9680534855703153
0.199034079909325 -0.070640608668327 0.9751370750394608 0.5282778363353456 -0.031481574848841974 0.9678699943034466
0.180558755993843 -0.068960726261139 0.9751548903635174 0.5275875319375636 -0.038808125121854026 0.9679852257981025
0.16303214430809 -0.067066922783852 0.9753577848455119 0.5262318391532949 -0.046676770327265464 0.9683482921920648
0.146485567092896 -0.064974032342434 0.9755770567081775 0.5240150040870483 -0.054966856626108736 0.9687550404999854
0.130932807922363 -0.06270232796669 0.9759863424516753 0.5210238246996597 -0.0635144918308084 0.9694317239010424
0.116385705769062 -0.060271121561527 0.9768323530400256 0.5173386358247698 -0.07245125475076461 0.9707378345721777
0.102848432958126 -0.057701252400875 0.9779173164761575 0.5126430982223122 -0.08183421173226478 0.9723953094890999
0.090310648083687 -0.05501502379775 0.9790598549675887 0.5066971413128488 -0.09174403083606823 0.9741167873268223
0.078764751553535 -0.052233718335629 0.9804773373727462 0.4995108977231156 -0.10191860448991776 0.9762634906806038
0.068191528320312 -0.049378991127014 0.9824123562545625 0.4911023997382154 -0.112248591475396 0.9791641945462982
0.058561883866787 -0.046472832560539 0.9846844248973851 0.48116283249434527 -0.12296274568463497 0.9825552743604363
0.049845643341541 -0.043536245822906 0.9871868037633049 0.46932454851957817 -0.13396714070862054 0.9862783817801741
0.042009774595499 -0.040588907897472 0.9902148834256177 0.4555400792894981 -0.14489660412285052 0.9907528032850089
0.035014003515244 -0.037649787962437 0.9937722550588908 0.4394777774617743 -0.1555254933537771 0.9960352708509125
0.028812842443585 -0.034736916422844 0.9977192245705923 0.42073598322605266 -0.16565048931111007 1.0019129828064388
0.023357974365354 -0.031867235898972 1.0023192354900585 0.39935660273415163 -0.17486687863565226 1.0087246745724834
0.018599603325129 -0.029055966064334 1.0074569518887762 0.3750714509803101 -0.18246737193358858 1.0163292403833826
0.014486311003566 -0.02631757222116 1.0129726657495126 0.34772830058702836 -0.1878408558876558 1.0245186216668858
0.010965643450618 -0.0236646682024 1.0190897646428112 0.317853804204167 -0.19058317405956338 1.0335581951565305
0.00798486545682 -0.021109031513333 1.0256925042950242 0.28574144502997695 -0.190107746670951 1.0432352535816116
0.005493327509612 -0.018661038950086 1.0324232439866954 0.2521811340257209 -0.18469465139282945 1.0531597999073363
0.003438631771132 -0.0163294672966 1.0392249850400095 0.21849825551906718 -0.17345184361712504 1.063223807187735
0.001767217530869 -0.014121843501925 1.0458954790957466 0.18589129292448806 -0.1570997842709879 1.0729915046301683
0.000430500716902 -0.012044190429151 1.052232793526619 0.15540823257811673 -0.13545639879092136 1.0822514033006456
-0.000615368597209 -0.01010072324425 1.0574845046510823 0.12902984929018213 -0.10905456431715879 1.0898017741614545
-0.001417249673977 -0.008293473161757 1.0615557036626964 0.10744817162662186 -0.07956864643055711 1.0956220641648955
-0.00201296270825 -0.006622360087931 1.064512903600428 0.09108370912504991 -0.04834684441362898 1.0997645324454073
-0.002441618358716 -0.005083994008601 1.0663097061579616 0.08008864284743027 -0.016596097183027785 1.102088006877919
-0.00273456168361 -0.003670997451991 1.0672112365650328 0.07386871774098938 0.014417830301028807 1.103023233324854
-0.002919929102063 -0.002370467875153 1.0669001092825 0.07251593511529403 0.044186014943034806 1.1022045594760994
-0.003021266777068 -0.001161714899354 1.06579376592801 0.07585341649741438 0.07234213107791852 1.1003652865236093
-0.00305366772227 -1.0699103768e-05 1.0640205955204878 0.08246621566679034 0.09874762750024935 1.097540368443913
-0.003022481687367 0.00113984127529 1.0616818698432748 0.08939771054751763 0.12454514396880585 1.0941090599592735
-0.002922531682998 0.002347336849198 1.0582316676270285 0.09718774618063133 0.15174890502960325 1.0893554827020016
-0.002738882089034 0.003646103898063 1.0535631271307018 0.10857426650977318 0.18051937415010663 1.0829493670616892
-0.002448108280078 0.005057029426098 1.0473698432486236 0.12573704714304346 0.20909116130548483 1.0742952192702853
-0.002022134140134 0.006593148224056 1.040368833647644 0.1482362515319281 0.23684586911203007 1.0645069442037915
-0.001429697033018 0.008261940442026 1.0317962008447858 0.1766195081996693 0.26238210441061255 1.0525279781171273
-0.000631729373708 0.01006686873734 1.0221461628045283 0.21036741717490853 0.28402156271235 1.0389098607229776
0.000409539090469 0.012008067220449 1.0124165868232275 0.24770335488241593 0.3007129524079805 1.0251624610051837
0.00174094340764 0.014083559624851 1.0018140962578783 0.28823299064577385 0.31010667274438775 1.0101967462866173
0.003406325820833 0.016289142891765 0.9918639095391689 0.3289897537353057 0.3123355316391671 0.996230899140353
0.005454241298139 0.01861883699894 0.9828349042374052 0.36840185462787267 0.30945555450986445 0.9834865062225218
0.007938244380057 0.021065136417747 0.9750751395111219 0.40546070803494927 0.30163418890822297 0.9724121307135811
0.010910777375102 0.023619268089533 0.9686033211823187 0.4387724012934295 0.2894325710958293 0.9630465361979039
0.014422528445721 0.026270909234881 0.9628975911326043 0.4673521946019027 0.2741771867964384 0.9547321867769317
0.018526261672378 0.029008276760578 0.9583150464836192 0.49171303969702856 0.25725656678802783 0.9480249515448967
0.023274462670088 0.031818769872189 0.9550060763084467 0.5125049164005172 0.23928584068016653 0.9431649860446123
0.028718626126647 0.034687966108322 0.952263971370162 0.5295247398589717 0.2207586124311007 0.9390955776408869
0.03490861132741 0.037600636482239 0.9499568781111013 0.5430947984077552 0.20263347080779062 0.9356133590774425